202
 energy: -290.188870669444 gnorm: 0.373175102785 xtb: 6.5.1 (579679a)
C           50.19199000000000       -3.93687000000000        6.79504000000000
C           49.20491999999999       -2.83308000000000        6.40385000000000
H           50.19537000000000       -4.74758000000000        6.03562000000000
H           49.92837000000000       -4.36654000000000        7.78489000000000
H           51.21980000000000       -3.51725000000000        6.86042000000000
C           47.75981000000000       -3.36074000000000        6.29784000000000
H           49.52313999999999       -2.41048000000000        5.42607000000000
H           49.25643000000000       -2.03003000000000        7.17087000000000
C           46.76561000000000       -2.24432000000000        5.90091000000000
H           47.46190000000000       -3.78791000000000        7.28041000000000
H           47.72980000000001       -4.16922000000000        5.53487000000000
C           45.30789000000000       -2.76084000000000        5.78778000000000
H           47.08046000000000       -1.82024000000000        4.92237000000000
H           46.81085000000000       -1.43901000000000        6.66639000000000
C           44.30493000000000       -1.64350000000000        5.38512000000000
H           45.00545999999999       -3.18730000000000        6.76892000000000
H           45.27739000000000       -3.56984000000000        5.02588000000000
C           42.83543000000000       -2.15067000000000        5.26317000000000
H           44.62454000000000       -1.21966000000000        4.40831000000000
H           44.34948000000000       -0.83744000000000        6.14954000000000
C           41.82690000000000       -1.03379000000000        4.85444000000000
H           42.52523000000000       -2.57599000000000        6.24204000000000
H           42.80313999999999       -2.95988000000000        4.50206000000000
O           40.48871000000000       -1.53744000000000        4.74855000000000
H           42.16200000000000       -0.62579000000000        3.87432000000000
H           41.87627000000000       -0.23809000000000        5.63149000000000
C           39.58035999999999       -0.49926000000000        4.35557000000000
C           38.10992999999999       -1.02264000000000        4.22608000000000
H           39.88251000000000       -0.08955000000000        3.36583000000000
H           39.58656999999999        0.31403000000000        5.11548000000000
O           37.20020000000000        0.01696000000000        3.82743000000000
H           37.81292000000000       -1.43099000000000        5.21774000000000
H           38.11382000000000       -1.83863000000000        3.46958000000000
C           35.85238999999999       -0.47088000000000        3.69570000000000
C           34.86372000000000        0.66663000000000        3.24288000000000
H           35.49835000000000       -0.86623000000000        4.67384000000000
H           35.81760000000000       -1.27919000000000        2.93184000000000
O           33.49623000000000        0.22797000000000        3.08812000000000
H           35.24497000000000        1.05699000000000        2.27341000000000
H           34.91642000000000        1.46757000000000        4.01342000000000
C           32.65201000000000        1.31806000000000        2.65806000000000
C           31.13761000000000        0.92124000000000        2.44472000000000
H           33.02420000000000        1.71318000000000        1.68732000000000
H           32.67495000000000        2.12668000000000        3.42174000000000
O           30.34193000000000        2.04544000000000        2.00753000000000
H           30.74746000000000        0.53408000000000        3.41238000000000
H           31.10489000000000        0.11184000000000        1.68210000000000
C           28.95937000000000        1.70175000000000        1.76631000000000
C           28.11559000000000        2.94687000000000        1.26557000000000
H           28.49612000000000        1.32575000000000        2.70598000000000
H           28.89936000000000        0.91117000000000        0.98576000000000
O           26.72464000000000        2.65823000000000        0.99495000000000
H           28.60328000000000        3.31485000000000        0.33706000000000
H           28.18372000000000        3.72512000000000        2.05684000000000
C           26.01428000000000        3.82735000000000        0.51363000000000
C           24.48428000000000        3.54612000000000        0.23543000000000
H           26.46861000000000        4.17514000000000       -0.43918000000000
H           26.06806000000000        4.63638000000000        1.27453000000000
O           23.71038000000000        4.68508000000000       -0.24466000000000
H           24.06771000000000        3.17543000000000        1.19995000000000
H           24.42938000000000        2.72689000000000       -0.51586000000000
C           22.30831000000000        4.33856000000000       -0.23195000000000
C           21.20841000000000        5.38407000000000       -0.59800000000000
H           22.03990000000000        4.05175000000000        0.80813000000000
H           22.13146000000000        3.46042000000000       -0.89338000000000
O           21.18247000000000        6.51715000000000       -1.06654000000000
O           19.91263000000000        5.19830000000000       -0.39429000000000
C           32.71044000000000       34.79030999999999        8.63774000000000
C           32.74896000000000       33.46379000000000        7.87493000000000
H           32.21410000000000       34.66104000000000        9.62309000000000
H           32.16521000000000       35.56213000000000        8.05384000000000
H           33.74659000000000       35.15302999999999        8.81384000000000
C           31.33481000000000       32.91536000000000        7.60443000000000
H           33.32734000000000       32.72973000000000        8.47709000000000
H           33.27856000000000       33.62821000000000        6.91138000000000
C           31.37727000000000       31.57601000000000        6.83610000000000
H           30.76693000000000       33.66392000000000        7.00947000000000
H           30.81603000000000       32.76586000000000        8.57671000000000
C           29.96203000000000       31.01287000000000        6.56000000000000
H           31.95385000000000       30.83859000000000        7.43647000000000
H           31.90365000000000       31.73492000000000        5.86948000000000
C           29.99998000000000       29.66579000000000        5.79173000000000
H           29.39168000000000       31.75807000000000        5.96371000000000
H           29.44258000000000       30.86408000000000        7.53169000000000
C           28.58294000000000       29.08847000000000        5.51262000000000
H           30.57944000000000       28.93176000000000        6.39308000000000
H           30.52636000000000       29.82323999999999        4.82508000000000
C           28.61602000000000       27.73591000000000        4.74695000000000
H           28.00816000000000       29.82792000000000        4.91399000000000
H           28.06208000000000       28.93944000000000        6.48314000000000
O           27.29579000000000       27.23737000000000        4.51336000000000
H           29.19594000000000       27.01484000000000        5.36631000000000
H           29.13799000000000       27.90977000000000        3.77890000000000
C           27.34298000000000       25.98489000000000        3.82308000000000
C           25.91314000000000       25.41797000000000        3.56350000000000
H           27.89912000000000       25.23713000000000        4.43206000000000
H           27.84313000000000       26.11408000000000        2.83689000000000
O           25.96213000000000       24.16107000000000        2.87590000000000
H           25.36040000000000       26.16726000000000        2.95386000000000
H           25.41839000000000       25.29639000000000        4.55294000000000
C           24.64815000000000       23.62620000000000        2.65751000000000
C           24.71750000000000       22.24209000000000        1.92876000000000
H           24.05586000000000       24.32291000000000        2.02298000000000
H           24.13310000000000       23.47513000000000        3.63228000000000
O           23.42611000000000       21.64824000000000        1.69538000000000
H           25.33078000000000       21.57148000000000        2.57091000000000
H           25.23769000000000       22.40993000000000        0.95912000000000
C           23.57376000000000       20.37418000000000        1.04154000000000
C           22.21747000000000       19.62086000000000        0.78867000000000
H           24.20067000000000       19.70344000000000        1.66966000000000
H           24.05952000000000       20.51964000000000        0.05086000000000
O           22.45055000000000       18.35441000000000        0.14589000000000
H           21.57727000000000       20.26240000000000        0.14238000000000
H           21.72253000000000       19.47266000000000        1.77396000000000
C           21.26402000000000       17.54822000000000        0.02174000000000
C           21.61508000000000       16.13816000000000       -0.59025000000000
H           20.52816000000000       18.05448000000000       -0.64364000000000
H           20.80708000000000       17.38558000000000        1.02276000000000
O           20.49970000000000       15.22978000000000       -0.71274000000000
H           22.38599000000000       15.69888000000000        0.07905000000000
H           22.05314000000000       16.31620000000000       -1.59721000000000
C           20.95802000000000       13.90381000000000       -1.06636000000000
C           19.80067000000000       12.84566000000000       -1.19959000000000
H           21.63852000000000       13.52870000000000       -0.27327000000000
H           21.49250000000000       13.93667000000000       -2.04197000000000
O           20.27097000000000       11.49186000000000       -1.44088000000000
H           19.13348000000000       13.18161000000000       -2.02835000000000
H           19.23000000000000       12.86949000000000       -0.24483000000000
C           19.15391000000000       10.61118000000000       -1.67491000000000
C           19.34551000000000        9.07913000000000       -1.45612000000000
H           18.76344000000000       10.76573000000000       -2.70560000000000
H           18.33379000000000       10.86828000000000       -0.96585000000000
O           20.30380000000000        8.34808000000000       -1.21024000000000
O           18.36291000000000        8.18486000000000       -1.39742000000000
C           -2.25004000000000      -11.68813000000000       11.88045000000000
C           -1.72926000000000      -10.30714000000000       11.48037000000000
H           -1.41148000000000      -12.34422000000000       12.19725000000000
H           -2.78461000000000      -12.16434000000000       11.03109000000000
H           -2.95905000000000      -11.58952000000000       12.73063000000000
C           -0.74121000000000      -10.39139000000000       10.30432000000000
H           -1.22617000000000       -9.85093000000000       12.36063000000000
H           -2.59598000000000       -9.67106000000000       11.19707000000000
C           -0.21763000000000       -8.99800000000000        9.90517000000000
H           -1.25424000000000      -10.85544000000000        9.43339000000000
H            0.11605000000000      -11.03621000000000       10.59822000000000
C            0.77643000000000       -9.07220000000000        8.72682000000000
H            0.28850000000000       -8.53907000000000       10.78277000000000
H           -1.08027000000000       -8.35768000000000        9.61743000000000
C            1.30538000000000       -7.67597000000000        8.32702000000000
H            0.26589000000000       -9.53430000000000        7.85366000000000
H            1.63337000000000       -9.71743000000000        9.01992000000000
C            2.30660000000000       -7.74184000000000        7.14737000000000
H            1.80858000000000       -7.21882000000000        9.20703000000000
H            0.44347000000000       -7.03484000000000        8.03942000000000
C            2.84202000000000       -6.34725000000000        6.74648000000000
H            1.80085000000000       -8.20058000000000        6.27001000000000
H            3.16408000000000       -8.38674000000000        7.43851000000000
O            3.75979000000000       -6.45577000000000        5.66217000000000
H            3.34595000000000       -5.90911000000000        7.63793000000000
H            1.97013000000000       -5.71932000000000        6.45325000000000
C            4.26200000000000       -5.17011000000000        5.30714000000000
C            5.26564000000000       -5.27749000000000        4.13182000000000
H            4.79647000000000       -4.71493000000000        6.17158000000000
H            3.42688000000000       -4.50752000000000        4.98518000000000
O            5.77250000000000       -3.99149000000000        3.77640000000000
H            4.72820000000000       -5.73280000000000        3.26970000000000
H            6.09515000000000       -5.94402000000000        4.45913000000000
C            6.70995000000000       -4.09116000000000        2.70285000000000
C            7.27003000000000       -2.68900000000000        2.33588000000000
H            6.21421000000000       -4.51253000000000        1.79951000000000
H            7.56742000000000       -4.73530000000000        3.00123000000000
O            8.22316000000000       -2.74718000000000        1.26777000000000
H            7.74795000000000       -2.27717000000000        3.25318000000000
H            6.40419000000000       -2.05295000000000        2.04332000000000
C            8.71304000000000       -1.43391000000000        0.97423000000000
C            9.80085000000000       -1.43269000000000       -0.14327000000000
H            9.17865000000000       -0.99112000000000        1.88319000000000
H            7.87489000000000       -0.78794000000000        0.62826000000000
O           10.25964000000000       -0.09847000000000       -0.38857000000000
H            9.35279000000000       -1.85577000000000       -1.07011000000000
H           10.63623000000000       -2.08193000000000        0.20184000000000
C           11.40523000000000       -0.05961000000000       -1.24905000000000
C           11.95102000000000        1.40193000000000       -1.34364000000000
H           11.12994000000000       -0.40965000000000       -2.26982000000000
H           12.21769000000000       -0.69853000000000       -0.83814000000000
O           13.14982000000000        1.53239000000000       -2.13023000000000
H           12.13561000000000        1.71839000000000       -0.29291000000000
H           11.15004000000000        2.03764000000000       -1.78308000000000
C           13.78442000000000        2.79308000000000       -1.85119000000000
C           15.12458000000000        3.02716000000000       -2.62887000000000
H           14.04372000000000        2.83655000000000       -0.77178000000000
H           13.09624000000000        3.63132000000000       -2.10730000000000
O           15.78037000000000        4.21476000000000       -2.15150000000000
H           14.89187000000000        3.09779000000000       -3.71728000000000
H           15.78566000000000        2.15302000000000       -2.44626000000000
C           16.88384000000000        4.62621000000000       -2.97408000000000
C           17.88918000000000        5.49841000000000       -2.18817000000000
H           16.48732000000000        5.22607000000000       -3.82289000000000
H           17.44097000000000        3.75204000000000       -3.37976000000000
O           17.86325000000000        5.78416000000000       -0.98507000000000
O           19.02186000000000        6.15891000000000       -2.54376000000000
Ni          19.36274000000000        6.79523000000000       -0.94889000000000
202
 energy: -290.316022889173 gnorm: 0.232808362256 xtb: 6.5.1 (579679a)
C           50.19141398975417       -3.93519131900973        6.79459282156587
C           49.20245504527259       -2.83640629280027        6.40418621723099
H           50.19479902677354       -4.73898143117389        6.04725065365978
H           49.93167669971336       -4.36346570812078        7.77115979174829
H           51.20795107120192       -3.52448951182056        6.86021336841752
C           47.75867516790512       -3.35406075106559        6.29617742172239
H           49.51549591517364       -2.41157856391597        5.43754635791817
H           49.25234744558830       -2.03622439379240        7.15920753715633
C           46.76023252571491       -2.24860529586836        5.90096025631577
H           47.46355276086461       -3.78387302457089        7.26666333771317
H           47.72765551653021       -4.15991104685877        5.54562900788018
C           45.30537436733876       -2.75477731691484        5.78597816950298
H           47.07456731122124       -1.82282966572348        4.93489567693037
H           46.80865114419910       -1.44698888130777        6.65491625526969
C           44.30017957068152       -1.64766783563465        5.38519110469837
H           45.00652838733782       -3.18328946144638        6.75535012013314
H           45.27467842144685       -3.56075402690401        5.03629172453542
C           42.83735660282765       -2.15164121392630        5.26366936597227
H           44.61872502244753       -1.22241636910282        4.42044779307481
H           44.34725387748544       -0.84550737871846        6.13846275918232
C           41.83291937617949       -1.04155889840710        4.85704675756552
H           42.52538598632083       -2.57368810058179        6.22979960721894
H           42.79977389797821       -2.95290616954417        4.51174542985697
O           40.48893673181657       -1.52266925678579        4.74469391044185
H           42.15557612548530       -0.62348278835966        3.88453670535289
H           41.87352534577896       -0.24072416775966        5.61978648411305
C           39.57305702885701       -0.49619315582369        4.35356344209965
C           38.11289513435286       -1.02352236271898        4.22670367142306
H           39.88071581545109       -0.08629545876660        3.37495878208819
H           39.58787567401674        0.31275446099235        5.10577808279499
O           37.19365265349197        0.00457909861970        3.82839640906514
H           37.81201335323096       -1.43280662911156        5.20742081336688
H           38.10950895486908       -1.83604336534082        3.47873208710852
C           35.84441142948455       -0.47016763864507        3.69395062091898
C           34.86830475541615        0.66666885696323        3.24355536949039
H           35.49950518158879       -0.86829497613559        4.66449656860405
H           35.81542463235540       -1.27711170396657        2.94084827405629
O           33.49989240758601        0.24331409686970        3.08427890235040
H           35.24127384737314        1.06044875407002        2.28193260684198
H           34.91612673023820        1.46634582340219        4.00344542305300
C           32.64560456145939        1.32208527979738        2.65559313537468
C           31.14208186500328        0.91984824110431        2.44573618254913
H           33.02260564202587        1.71626556638224        1.69600097768106
H           32.67671341943530        2.12516240445405        3.41246230559151
O           30.33650624931160        2.03367994431287        2.00748377424102
H           30.74847998191652        0.53368618358206        3.40261350199365
H           31.10205825063031        0.11567636986685        1.69027093571650
C           28.95326570832279        1.70400247048600        1.76395088131590
C           28.12126208782730        2.94586890501317        1.26686930524609
H           28.49857676266682        1.32571394013262        2.69674372679630
H           28.89752990993893        0.91477097627640        0.99382134799826
O           26.72980741515995        2.67231058320733        0.99227588746971
H           28.60120530960394        3.31767376418754        0.34564219188897
H           28.18587702779725        3.72343413896107        2.04747266531519
C           26.01031841816771        3.83171683278240        0.51047431711330
C           24.49093043449649        3.53808879517406        0.23996046843700
H           26.46889148676051        4.17802478094113       -0.43059713525851
H           26.07191005638509        4.63409803560335        1.26539972972441
O           23.70589246367517        4.66444586179090       -0.23305968819983
H           24.06582367891862        3.17467681651837        1.19185091125494
H           24.42824834519697        2.72893735391026       -0.50810654240990
C           22.30708436165999        4.33325407203180       -0.22152029904439
C           21.23353403216030        5.37429833407702       -0.59247568879778
H           22.03591079597552        4.04418152695491        0.80809657224815
H           22.12881593428137        3.46725804598994       -0.88690009881748
O           21.27806993128960        6.49962836730985       -1.09378030099240
O           19.95864586782513        5.16941125451624       -0.34165327749109
C           32.71150971642733       34.78931929532275        8.63713107991400
C           32.74527231258652       33.46482376181179        7.87564678099671
H           32.21897057032977       34.66497842436982        9.61002339239870
H           32.17079642452730       35.55298516497270        8.06356525113685
H           33.73323902970107       35.15104909834930        8.81309205130077
C           31.33881987943139       32.91079102021141        7.60171514329318
H           33.32050531846154       32.73468431426868        8.46629010714897
H           33.27236068639801       33.62126019327454        6.92142402532980
C           31.37084253078680       31.57581160630923        6.83624577570430
H           30.77186164054923       33.65342016573159        7.01795659200330
H           30.82019451144142       32.76802321544643        8.56315459224499
C           29.96453201673850       31.00778528514038        6.55709800080765
H           31.94728441561270       30.84591015532821        7.42646561446374
H           31.89768410779703       31.72990867153128        5.88120874810429
C           29.99395839478366       29.66578590161671        5.79201919478747
H           29.39608393566518       31.74739830478348        5.97185721387719
H           29.44613801044360       30.86584177129692        7.51822374793532
C           28.58360574685008       29.09064809902739        5.51384109189496
H           30.57281090523477       28.93891744392360        6.38341120965967
H           30.52026529381856       29.81847532135246        4.83657422261238
C           28.61526574314325       27.74466897558692        4.75198898974342
H           28.01052856537045       29.81859303382040        4.92174629051504
H           28.06365208709215       28.94144039916386        6.47107155724009
O           27.30602668595856       27.22774949949480        4.50825564582502
H           29.19241693802984       27.01759503763623        5.35471796250838
H           29.13524015903587       27.90129955696577        3.78754201952104
C           27.34004856997016       25.97864214518005        3.81975864908345
C           25.91450695179461       25.42046136783428        3.56490457200063
H           27.89991373024212       25.24132185323286        4.42284237824812
H           27.84437407604290       26.10862427901372        2.84530188384780
O           25.94917034740853       24.16443408268689        2.87956111519067
H           25.35873160060118       26.16070639203760        2.96220249875601
H           25.41589139356805       25.29968597917685        4.54304477122970
C           24.64286422214289       23.62094415133022        2.65517457204941
C           24.72110313225292       22.24467931025849        1.93025675393305
H           24.05576408008551       24.31851994248572        2.03192572855502
H           24.13194196774915       23.48014079865231        3.62392799821272
O           23.43971962138633       21.63974180833051        1.69201020694724
H           25.33027315464360       21.57342545348734        2.56083624341585
H           25.23748792727347       22.40292417806319        0.96685706601979
C           23.57231234689996       20.36741846204509        1.03856823974199
C           22.21965596151528       19.62420857189131        0.79060370230525
H           24.20166765141976       19.70748882380857        1.66086111354389
H           24.06111461131627       20.51464566551463        0.05936791111462
O           22.44011943920253       18.35452760226115        0.15404303330591
H           21.57846117369318       20.25644106230636        0.15065536762063
H           21.72185940116436       19.47454297312072        1.76458597408919
C           21.26163571367276       17.54185483388408        0.02034905200134
C           21.61900122336678       16.14191011312327       -0.58800090715748
H           20.53168033045400       18.04995025824968       -0.63532723333545
H           20.80628104944232       17.38840539408007        1.01426841464873
O           20.51598629494255       15.22221009624470       -0.71050849520639
H           22.38562670610356       15.69951653991789        0.06997955981165
H           22.05550993808339       16.31216461589868       -1.58783248915545
C           20.95955462677646       13.89546170701307       -1.06593646461575
C           19.79804325742674       12.85378325917871       -1.19602273918477
H           21.64241544290069       13.52975476698575       -0.28216817430090
H           21.49417853387811       13.93606264789559       -2.03110611003694
O           20.24949347623853       11.49873459242059       -1.43720889829663
H           19.13657683316308       13.17697911359055       -2.02030890037804
H           19.22730978409011       12.87118790497369       -0.25188027604674
C           19.14529822193766       10.61129760175581       -1.67304150577869
C           19.34573854650300        9.10048839188719       -1.44194418328991
H           18.76568772221619       10.75922858420049       -2.70077186343241
H           18.33076728401524       10.86606732036896       -0.97101283405430
O           20.34704996712279        8.43454272012963       -1.16145722966532
O           18.34994711415450        8.23211681238545       -1.38727165584845
C           -2.25086757267882      -11.68717114935195       11.88156265937721
C           -1.72835120955259      -10.31031589210480       11.47881642302837
H           -1.42371336307088      -12.33826020786907       12.19208157591359
H           -2.77684157389870      -12.16100309317112       11.04291854258763
H           -2.95170218490322      -11.59448299828876       12.72118089316183
C           -0.74210037309852      -10.38557068470924       10.30629805239664
H           -1.23178905214057       -9.85190166974132       12.34837527841205
H           -2.58333260806529       -9.67447547413791       11.20034906389355
C           -0.21473049006661       -9.00109704383698        9.90134401632018
H           -1.24568805339873      -10.85079700180281        9.44389334430403
H            0.10523504572229      -11.02905511914352       10.59219452424135
C            0.77668510294342       -9.06658443357964        8.72747957500469
H            0.28141919025328       -8.54194542690067       10.77109340358410
H           -1.06823845666704       -8.36319383172637        9.62198014804446
C            1.30816804960740       -7.67901723803529        8.32337183965747
H            0.27477428551344       -9.52961727832480        7.86350115606177
H            1.62321383980058       -9.71031322644658        9.01342717087267
C            2.30514285618802       -7.74444321466884        7.14863986510188
H            1.80179294027997       -7.22170612076946        9.19545080992618
H            0.45537149868655       -7.04038324759721        8.04370973856754
C            2.83867743131377       -6.35637955652161        6.74895425277528
H            1.80979147700521       -8.19763130163647        6.27785275673427
H            3.15560398205392       -8.38150757799170        7.43135401993707
O            3.75841519373488       -6.44216184373430        5.66674153359481
H            3.33964869549849       -5.90591496650623        7.62740158108792
H            1.98168796805480       -5.71870226708557        6.45829050682208
C            4.26564905307265       -5.16541244371971        5.30371961551711
C            5.26398447879657       -5.27986808940256        4.13332338424022
H            4.78761479518716       -4.71236567569699        6.16609975177287
H            3.43379964399116       -4.50740960104443        4.99324180955812
O            5.77816066575539       -4.00188394444745        3.76921627290852
H            4.73832732780024       -5.73411205248890        3.27430131870393
H            6.08925492074302       -5.94280993686730        4.44959784653755
C            6.71479422092353       -4.08923417555242        2.69781977955862
C            7.26726665775427       -2.68971066147939        2.33904498398498
H            6.22193564617821       -4.51558772908555        1.80593990195880
H            7.55977512276662       -4.73601338217663        2.99404121837861
O            8.22053802356844       -2.73383128180430        1.27502813356417
H            7.74148756270147       -2.27279124319984        3.24547572078235
H            6.41332337489214       -2.05158503318124        2.04911245892856
C            8.71639399887875       -1.42865996620221        0.97130794816092